# vtk DataFile Version 4.2
vtk output
ASCII
DATASET UNSTRUCTURED_GRID
POINTS 2197 double
0 0 0 1 0 0 2 0 0 
3 0 0 0 1 0 1 1 0 
2 1 0 3 1 0 0 2 0 
1 2 0 2 2 0 3 2 0 
0 3 0 1 3 0 2 3 0 
3 3 0 0 0 1 1 0 1 
2 0 1 3 0 1 0 1 1 
1 1 1 2 1 1 3 1 1 
0 2 1 1 2 1 2 2 1 
3 2 1 0 3 1 1 3 1 
2 3 1 3 3 1 0 0 2 
1 0 2 2 0 2 3 0 2 
0 1 2 1 1 2 2 1 2 
3 1 2 0 2 2 1 2 2 
2 2 2 3 2 2 0 3 2 
1 3 2 2 3 2 3 3 2 
0 0 3 1 0 3 2 0 3 
3 0 3 0 1 3 1 1 3 
2 1 3 3 1 3 0 2 3 
1 2 3 2 2 3 3 2 3 
0 3 3 1 3 3 2 3 3 
3 3 3 0.25 0 0 0.5 0 0 
0.75 0 0 0 0.25 0 0.25 0.25 0 
0.5 0.25 0 0.75 0.25 0 1 0.25 0 
0 0.5 0 0.25 0.5 0 0.5 0.5 0 
0.75 0.5 0 1 0.5 0 0 0.75 0 
0.25 0.75 0 0.5 0.75 0 0.75 0.75 0 
1 0.75 0 0.25 1 0 0.5 1 0 
0.75 1 0 0 0 0.25 0.25 0 0.25 
0.5 0 0.25 0.75 0 0.25 1 0 0.25 
0 0.25 0.25 0.25 0.25 0.25 0.5 0.25 0.25 
0.75 0.25 0.25 1 0.25 0.25 0 0.5 0.25 
0.25 0.5 0.25 0.5 0.5 0.25 0.75 0.5 0.25 
1 0.5 0.25 0 0.75 0.25 0.25 0.75 0.25 
0.5 0.75 0.25 0.75 0.75 0.25 1 0.75 0.25 
0 1 0.25 0.25 1 0.25 0.5 1 0.25 
0.75 1 0.25 1 1 0.25 0 0 0.5 
0.25 0 0.5 0.5 0 0.5 0.75 0 0.5 
1 0 0.5 0 0.25 0.5 0.25 0.25 0.5 
0.5 0.25 0.5 0.75 0.25 0.5 1 0.25 0.5 
0 0.5 0.5 0.25 0.5 0.5 0.5 0.5 0.5 
0.75 0.5 0.5 1 0.5 0.5 0 0.75 0.5 
0.25 0.75 0.5 0.5 0.75 0.5 0.75 0.75 0.5 
1 0.75 0.5 0 1 0.5 0.25 1 0.5 
0.5 1 0.5 0.75 1 0.5 1 1 0.5 
0 0 0.75 0.25 0 0.75 0.5 0 0.75 
0.75 0 0.75 1 0 0.75 0 0.25 0.75 
0.25 0.25 0.75 0.5 0.25 0.75 0.75 0.25 0.75 
1 0.25 0.75 0 0.5 0.75 0.25 0.5 0.75 
0.5 0.5 0.75 0.75 0.5 0.75 1 0.5 0.75 
0 0.75 0.75 0.25 0.75 0.75 0.5 0.75 0.75 
0.75 0.75 0.75 1 0.75 0.75 0 1 0.75 
0.25 1 0.75 0.5 1 0.75 0.75 1 0.75 
1 1 0.75 0.25 0 1 0.5 0 1 
0.75 0 1 0 0.25 1 0.25 0.25 1 
0.5 0.25 1 0.75 0.25 1 1 0.25 1 
0 0.5 1 0.25 0.5 1 0.5 0.5 1 
0.75 0.5 1 1 0.5 1 0 0.75 1 
0.25 0.75 1 0.5 0.75 1 0.75 0.75 1 
1 0.75 1 0.25 1 1 0.5 1 1 
0.75 1 1 1.25 0 0 1.5 0 0 
1.75 0 0 1.25 0.25 0 1.5 0.25 0 
1.75 0.25 0 2 0.25 0 1.25 0.5 0 
1.5 0.5 0 1.75 0.5 0 2 0.5 0 
1.25 0.75 0 1.5 0.75 0 1.75 0.75 0 
2 0.75 0 1.25 1 0 1.5 1 0 
1.75 1 0 1.25 0 0.25 1.5 0 0.25 
1.75 0 0.25 2 0 0.25 1.25 0.25 0.25 
1.5 0.25 0.25 1.75 0.25 0.25 2 0.25 0.25 
1.25 0.5 0.25 1.5 0.5 0.25 1.75 0.5 0.25 
2 0.5 0.25 1.25 0.75 0.25 1.5 0.75 0.25 
1.75 0.75 0.25 2 0.75 0.25 1.25 1 0.25 
1.5 1 0.25 1.75 1 0.25 2 1 0.25 
1.25 0 0.5 1.5 0 0.5 1.75 0 0.5 
2 0 0.5 1.25 0.25 0.5 1.5 0.25 0.5 
1.75 0.25 0.5 2 0.25 0.5 1.25 0.5 0.5 
1.5 0.5 0.5 1.75 0.5 0.5 2 0.5 0.5 
1.25 0.75 0.5 1.5 0.75 0.5 1.75 0.75 0.5 
2 0.75 0.5 1.25 1 0.5 1.5 1 0.5 
1.75 1 0.5 2 1 0.5 1.25 0 0.75 
1.5 0 0.75 1.75 0 0.75 2 0 0.75 
1.25 0.25 0.75 1.5 0.25 0.75 1.75 0.25 0.75 
2 0.25 0.75 1.25 0.5 0.75 1.5 0.5 0.75 
1.75 0.5 0.75 2 0.5 0.75 1.25 0.75 0.75 
1.5 0.75 0.75 1.75 0.75 0.75 2 0.75 0.75 
1.25 1 0.75 1.5 1 0.75 1.75 1 0.75 
2 1 0.75 1.25 0 1 1.5 0 1 
1.75 0 1 1.25 0.25 1 1.5 0.25 1 
1.75 0.25 1 2 0.25 1 1.25 0.5 1 
1.5 0.5 1 1.75 0.5 1 2 0.5 1 
1.25 0.75 1 1.5 0.75 1 1.75 0.75 1 
2 0.75 1 1.25 1 1 1.5 1 1 
1.75 1 1 2.25 0 0 2.5 0 0 
2.75 0 0 2.25 0.25 0 2.5 0.25 0 
2.75 0.25 0 3 0.25 0 2.25 0.5 0 
2.5 0.5 0 2.75 0.5 0 3 0.5 0 
2.25 0.75 0 2.5 0.75 0 2.75 0.75 0 
3 0.75 0 2.25 1 0 2.5 1 0 
2.75 1 0 2.25 0 0.25 2.5 0 0.25 
2.75 0 0.25 3 0 0.25 2.25 0.25 0.25 
2.5 0.25 0.25 2.75 0.25 0.25 3 0.25 0.25 
2.25 0.5 0.25 2.5 0.5 0.25 2.75 0.5 0.25 
3 0.5 0.25 2.25 0.75 0.25 2.5 0.75 0.25 
2.75 0.75 0.25 3 0.75 0.25 2.25 1 0.25 
2.5 1 0.25 2.75 1 0.25 3 1 0.25 
2.25 0 0.5 2.5 0 0.5 2.75 0 0.5 
3 0 0.5 2.25 0.25 0.5 2.5 0.25 0.5 
2.75 0.25 0.5 3 0.25 0.5 2.25 0.5 0.5 
2.5 0.5 0.5 2.75 0.5 0.5 3 0.5 0.5 
2.25 0.75 0.5 2.5 0.75 0.5 2.75 0.75 0.5 
3 0.75 0.5 2.25 1 0.5 2.5 1 0.5 
2.75 1 0.5 3 1 0.5 2.25 0 0.75 
2.5 0 0.75 2.75 0 0.75 3 0 0.75 
2.25 0.25 0.75 2.5 0.25 0.75 2.75 0.25 0.75 
3 0.25 0.75 2.25 0.5 0.75 2.5 0.5 0.75 
2.75 0.5 0.75 3 0.5 0.75 2.25 0.75 0.75 
2.5 0.75 0.75 2.75 0.75 0.75 3 0.75 0.75 
2.25 1 0.75 2.5 1 0.75 2.75 1 0.75 
3 1 0.75 2.25 0 1 2.5 0 1 
2.75 0 1 2.25 0.25 1 2.5 0.25 1 
2.75 0.25 1 3 0.25 1 2.25 0.5 1 
2.5 0.5 1 2.75 0.5 1 3 0.5 1 
2.25 0.75 1 2.5 0.75 1 2.75 0.75 1 
3 0.75 1 2.25 1 1 2.5 1 1 
2.75 1 1 0 1.25 0 0.25 1.25 0 
0.5 1.25 0 0.75 1.25 0 1 1.25 0 
0 1.5 0 0.25 1.5 0 0.5 1.5 0 
0.75 1.5 0 1 1.5 0 0 1.75 0 
0.25 1.75 0 0.5 1.75 0 0.75 1.75 0 
1 1.75 0 0.25 2 0 0.5 2 0 
0.75 2 0 0 1.25 0.25 0.25 1.25 0.25 
0.5 1.25 0.25 0.75 1.25 0.25 1 1.25 0.25 
0 1.5 0.25 0.25 1.5 0.25 0.5 1.5 0.25 
0.75 1.5 0.25 1 1.5 0.25 0 1.75 0.25 
0.25 1.75 0.25 0.5 1.75 0.25 0.75 1.75 0.25 
1 1.75 0.25 0 2 0.25 0.25 2 0.25 
0.5 2 0.25 0.75 2 0.25 1 2 0.25 
0 1.25 0.5 0.25 1.25 0.5 0.5 1.25 0.5 
0.75 1.25 0.5 1 1.25 0.5 0 1.5 0.5 
0.25 1.5 0.5 0.5 1.5 0.5 0.75 1.5 0.5 
1 1.5 0.5 0 1.75 0.5 0.25 1.75 0.5 
0.5 1.75 0.5 0.75 1.75 0.5 1 1.75 0.5 
0 2 0.5 0.25 2 0.5 0.5 2 0.5 
0.75 2 0.5 1 2 0.5 0 1.25 0.75 
0.25 1.25 0.75 0.5 1.25 0.75 0.75 1.25 0.75 
1 1.25 0.75 0 1.5 0.75 0.25 1.5 0.75 
0.5 1.5 0.75 0.75 1.5 0.75 1 1.5 0.75 
0 1.75 0.75 0.25 1.75 0.75 0.5 1.75 0.75 
0.75 1.75 0.75 1 1.75 0.75 0 2 0.75 
0.25 2 0.75 0.5 2 0.75 0.75 2 0.75 
1 2 0.75 0 1.25 1 0.25 1.25 1 
0.5 1.25 1 0.75 1.25 1 1 1.25 1 
0 1.5 1 0.25 1.5 1 0.5 1.5 1 
0.75 1.5 1 1 1.5 1 0 1.75 1 
0.25 1.75 1 0.5 1.75 1 0.75 1.75 1 
1 1.75 1 0.25 2 1 0.5 2 1 
0.75 2 1 1.25 1.25 0 1.5 1.25 0 
1.75 1.25 0 2 1.25 0 1.25 1.5 0 
1.5 1.5 0 1.75 1.5 0 2 1.5 0 
1.25 1.75 0 1.5 1.75 0 1.75 1.75 0 
2 1.75 0 1.25 2 0 1.5 2 0 
1.75 2 0 1.25 1.25 0.25 1.5 1.25 0.25 
1.75 1.25 0.25 2 1.25 0.25 1.25 1.5 0.25 
1.5 1.5 0.25 1.75 1.5 0.25 2 1.5 0.25 
1.25 1.75 0.25 1.5 1.75 0.25 1.75 1.75 0.25 
2 1.75 0.25 1.25 2 0.25 1.5 2 0.25 
1.75 2 0.25 2 2 0.25 1.25 1.25 0.5 
1.5 1.25 0.5 1.75 1.25 0.5 2 1.25 0.5 
1.25 1.5 0.5 1.5 1.5 0.5 1.75 1.5 0.5 
2 1.5 0.5 1.25 1.75 0.5 1.5 1.75 0.5 
1.75 1.75 0.5 2 1.75 0.5 1.25 2 0.5 
1.5 2 0.5 1.75 2 0.5 2 2 0.5 
1.25 1.25 0.75 1.5 1.25 0.75 1.75 1.25 0.75 
2 1.25 0.75 1.25 1.5 0.75 1.5 1.5 0.75 
1.75 1.5 0.75 2 1.5 0.75 1.25 1.75 0.75 
1.5 1.75 0.75 1.75 1.75 0.75 2 1.75 0.75 
1.25 2 0.75 1.5 2 0.75 1.75 2 0.75 
2 2 0.75 1.25 1.25 1 1.5 1.25 1 
1.75 1.25 1 2 1.25 1 1.25 1.5 1 
1.5 1.5 1 1.75 1.5 1 2 1.5 1 
1.25 1.75 1 1.5 1.75 1 1.75 1.75 1 
2 1.75 1 1.25 2 1 1.5 2 1 
1.75 2 1 2.25 1.25 0 2.5 1.25 0 
2.75 1.25 0 3 1.25 0 2.25 1.5 0 
2.5 1.5 0 2.75 1.5 0 3 1.5 0 
2.25 1.75 0 2.5 1.75 0 2.75 1.75 0 
3 1.75 0 2.25 2 0 2.5 2 0 
2.75 2 0 2.25 1.25 0.25 2.5 1.25 0.25 
2.75 1.25 0.25 3 1.25 0.25 2.25 1.5 0.25 
2.5 1.5 0.25 2.75 1.5 0.25 3 1.5 0.25 
2.25 1.75 0.25 2.5 1.75 0.25 2.75 1.75 0.25 
3 1.75 0.25 2.25 2 0.25 2.5 2 0.25 
2.75 2 0.25 3 2 0.25 2.25 1.25 0.5 
2.5 1.25 0.5 2.75 1.25 0.5 3 1.25 0.5 
2.25 1.5 0.5 2.5 1.5 0.5 2.75 1.5 0.5 
3 1.5 0.5 2.25 1.75 0.5 2.5 1.75 0.5 
2.75 1.75 0.5 3 1.75 0.5 2.25 2 0.5 
2.5 2 0.5 2.75 2 0.5 3 2 0.5 
2.25 1.25 0.75 2.5 1.25 0.75 2.75 1.25 0.75 
3 1.25 0.75 2.25 1.5 0.75 2.5 1.5 0.75 
2.75 1.5 0.75 3 1.5 0.75 2.25 1.75 0.75 
2.5 1.75 0.75 2.75 1.75 0.75 3 1.75 0.75 
2.25 2 0.75 2.5 2 0.75 2.75 2 0.75 
3 2 0.75 2.25 1.25 1 2.5 1.25 1 
2.75 1.25 1 3 1.25 1 2.25 1.5 1 
2.5 1.5 1 2.75 1.5 1 3 1.5 1 
2.25 1.75 1 2.5 1.75 1 2.75 1.75 1 
3 1.75 1 2.25 2 1 2.5 2 1 
2.75 2 1 0 2.25 0 0.25 2.25 0 
0.5 2.25 0 0.75 2.25 0 1 2.25 0 
0 2.5 0 0.25 2.5 0 0.5 2.5 0 
0.75 2.5 0 1 2.5 0 0 2.75 0 
0.25 2.75 0 0.5 2.75 0 0.75 2.75 0 
1 2.75 0 0.25 3 0 0.5 3 0 
0.75 3 0 0 2.25 0.25 0.25 2.25 0.25 
0.5 2.25 0.25 0.75 2.25 0.25 1 2.25 0.25 
0 2.5 0.25 0.25 2.5 0.25 0.5 2.5 0.25 
0.75 2.5 0.25 1 2.5 0.25 0 2.75 0.25 
0.25 2.75 0.25 0.5 2.75 0.25 0.75 2.75 0.25 
1 2.75 0.25 0 3 0.25 0.25 3 0.25 
0.5 3 0.25 0.75 3 0.25 1 3 0.25 
0 2.25 0.5 0.25 2.25 0.5 0.5 2.25 0.5 
0.75 2.25 0.5 1 2.25 0.5 0 2.5 0.5 
0.25 2.5 0.5 0.5 2.5 0.5 0.75 2.5 0.5 
1 2.5 0.5 0 2.75 0.5 0.25 2.75 0.5 
0.5 2.75 0.5 0.75 2.75 0.5 1 2.75 0.5 
0 3 0.5 0.25 3 0.5 0.5 3 0.5 
0.75 3 0.5 1 3 0.5 0 2.25 0.75 
0.25 2.25 0.75 0.5 2.25 0.75 0.75 2.25 0.75 
1 2.25 0.75 0 2.5 0.75 0.25 2.5 0.75 
0.5 2.5 0.75 0.75 2.5 0.75 1 2.5 0.75 
0 2.75 0.75 0.25 2.75 0.75 0.5 2.75 0.75 
0.75 2.75 0.75 1 2.75 0.75 0 3 0.75 
0.25 3 0.75 0.5 3 0.75 0.75 3 0.75 
1 3 0.75 0 2.25 1 0.25 2.25 1 
0.5 2.25 1 0.75 2.25 1 1 2.25 1 
0 2.5 1 0.25 2.5 1 0.5 2.5 1 
0.75 2.5 1 1 2.5 1 0 2.75 1 
0.25 2.75 1 0.5 2.75 1 0.75 2.75 1 
1 2.75 1 0.25 3 1 0.5 3 1 
0.75 3 1 1.25 2.25 0 1.5 2.25 0 
1.75 2.25 0 2 2.25 0 1.25 2.5 0 
1.5 2.5 0 1.75 2.5 0 2 2.5 0 
1.25 2.75 0 1.5 2.75 0 1.75 2.75 0 
2 2.75 0 1.25 3 0 1.5 3 0 
1.75 3 0 1.25 2.25 0.25 1.5 2.25 0.25 
1.75 2.25 0.25 2 2.25 0.25 1.25 2.5 0.25 
1.5 2.5 0.25 1.75 2.5 0.25 2 2.5 0.25 
1.25 2.75 0.25 1.5 2.75 0.25 1.75 2.75 0.25 
2 2.75 0.25 1.25 3 0.25 1.5 3 0.25 
1.75 3 0.25 2 3 0.25 1.25 2.25 0.5 
1.5 2.25 0.5 1.75 2.25 0.5 2 2.25 0.5 
1.25 2.5 0.5 1.5 2.5 0.5 1.75 2.5 0.5 
2 2.5 0.5 1.25 2.75 0.5 1.5 2.75 0.5 
1.75 2.75 0.5 2 2.75 0.5 1.25 3 0.5 
1.5 3 0.5 1.75 3 0.5 2 3 0.5 
1.25 2.25 0.75 1.5 2.25 0.75 1.75 2.25 0.75 
2 2.25 0.75 1.25 2.5 0.75 1.5 2.5 0.75 
1.75 2.5 0.75 2 2.5 0.75 1.25 2.75 0.75 
1.5 2.75 0.75 1.75 2.75 0.75 2 2.75 0.75 
1.25 3 0.75 1.5 3 0.75 1.75 3 0.75 
2 3 0.75 1.25 2.25 1 1.5 2.25 1 
1.75 2.25 1 2 2.25 1 1.25 2.5 1 
1.5 2.5 1 1.75 2.5 1 2 2.5 1 
1.25 2.75 1 1.5 2.75 1 1.75 2.75 1 
2 2.75 1 1.25 3 1 1.5 3 1 
1.75 3 1 2.25 2.25 0 2.5 2.25 0 
2.75 2.25 0 3 2.25 0 2.25 2.5 0 
2.5 2.5 0 2.75 2.5 0 3 2.5 0 
2.25 2.75 0 2.5 2.75 0 2.75 2.75 0 
3 2.75 0 2.25 3 0 2.5 3 0 
2.75 3 0 2.25 2.25 0.25 2.5 2.25 0.25 
2.75 2.25 0.25 3 2.25 0.25 2.25 2.5 0.25 
2.5 2.5 0.25 2.75 2.5 0.25 3 2.5 0.25 
2.25 2.75 0.25 2.5 2.75 0.25 2.75 2.75 0.25 
3 2.75 0.25 2.25 3 0.25 2.5 3 0.25 
2.75 3 0.25 3 3 0.25 2.25 2.25 0.5 
2.5 2.25 0.5 2.75 2.25 0.5 3 2.25 0.5 
2.25 2.5 0.5 2.5 2.5 0.5 2.75 2.5 0.5 
3 2.5 0.5 2.25 2.75 0.5 2.5 2.75 0.5 
2.75 2.75 0.5 3 2.75 0.5 2.25 3 0.5 
2.5 3 0.5 2.75 3 0.5 3 3 0.5 
2.25 2.25 0.75 2.5 2.25 0.75 2.75 2.25 0.75 
3 2.25 0.75 2.25 2.5 0.75 2.5 2.5 0.75 
2.75 2.5 0.75 3 2.5 0.75 2.25 2.75 0.75 
2.5 2.75 0.75 2.75 2.75 0.75 3 2.75 0.75 
2.25 3 0.75 2.5 3 0.75 2.75 3 0.75 
3 3 0.75 2.25 2.25 1 2.5 2.25 1 
[...]
POINT_DATA 2197
FIELD FieldData 2
DistanceToCenter 1 2197 double
2.5980762114 2.1794494718 2.1794494718 2.5980762114 2.1794494718 1.6583123952 1.6583123952 2.1794494718 2.1794494718 
1.6583123952 1.6583123952 2.1794494718 2.5980762114 2.1794494718 2.1794494718 2.5980762114 2.1794494718 1.6583123952 
1.6583123952 2.1794494718 1.6583123952 0.86602540378 0.86602540378 1.6583123952 1.6583123952 0.86602540378 0.86602540378 
1.6583123952 2.1794494718 1.6583123952 1.6583123952 2.1794494718 2.1794494718 1.6583123952 1.6583123952 2.1794494718 
1.6583123952 0.86602540378 0.86602540378 1.6583123952 1.6583123952 0.86602540378 0.86602540378 1.6583123952 2.1794494718 
1.6583123952 1.6583123952 2.1794494718 2.5980762114 2.1794494718 2.1794494718 2.5980762114 2.1794494718 1.6583123952 
1.6583123952 2.1794494718 2.1794494718 1.6583123952 1.6583123952 2.1794494718 2.5980762114 2.1794494718 2.1794494718 
2.5980762114 2.4622144504 2.3452078799 2.25 2.4622144504 2.3184046239 2.1937410968 2.0916500663 2.0155644371 
2.3452078799 2.1937410968 2.0615528128 1.952562419 1.8708286934 2.25 2.0916500663 1.952562419 1.8371173071 
1.75 2.0155644371 1.8708286934 1.75 2.4622144504 2.3184046239 2.1937410968 2.0916500663 2.0155644371 
2.3184046239 2.1650635095 2.0310096012 1.920286437 1.8371173071 2.1937410968 2.0310096012 1.8874586088 1.767766953 
1.6770509831 2.0916500663 1.920286437 1.767766953 1.6393596311 1.5411035007 2.0155644371 1.8371173071 1.6770509831 
1.5411035007 1.4361406616 2.3452078799 2.1937410968 2.0615528128 1.952562419 1.8708286934 2.1937410968 2.0310096012 
1.8874586088 1.767766953 1.6770509831 2.0615528128 1.8874586088 1.7320508076 1.6007810594 1.5 1.952562419 
1.767766953 1.6007810594 1.4577379737 1.3462912018 1.8708286934 1.6770509831 1.5 1.3462912018 1.2247448714 
2.25 2.0916500663 1.952562419 1.8371173071 1.75 2.0916500663 1.920286437 1.767766953 1.6393596311 
1.5411035007 1.952562419 1.767766953 1.6007810594 1.4577379737 1.3462912018 1.8371173071 1.6393596311 1.4577379737 
1.2990381057 1.17260394 1.75 1.5411035007 1.3462912018 1.17260394 1.0307764064 2.0155644371 1.8708286934 
1.75 2.0155644371 1.8371173071 1.6770509831 1.5411035007 1.4361406616 1.8708286934 1.6770509831 1.5 
1.3462912018 1.2247448714 1.75 1.5411035007 1.3462912018 1.17260394 1.0307764064 1.4361406616 1.2247448714 
1.0307764064 2.1360009363 2.1213203436 2.1360009363 1.9685019685 1.952562419 1.9685019685 2.0155644371 1.8200274723 
1.8027756377 1.8200274723 1.8708286934 1.6955824958 1.6770509831 1.6955824958 1.75 1.6007810594 1.5811388301 
1.6007810594 1.9685019685 1.952562419 1.9685019685 2.0155644371 1.7853571071 1.767766953 1.7853571071 1.8371173071 
1.6201851746 1.6007810594 1.6201851746 1.6770509831 1.4790199458 1.4577379737 1.4790199458 1.5411035007 1.3693063938 
1.3462912018 1.3693063938 1.4361406616 1.8200274723 1.8027756377 1.8200274723 1.8708286934 1.6201851746 1.6007810594 
1.6201851746 1.6770509831 1.4361406616 1.4142135624 1.4361406616 1.5 1.2747548784 1.25 1.2747548784 
1.3462912018 1.1456439237 1.1180339887 1.1456439237 1.2247448714 1.6955824958 1.6770509831 1.6955824958 1.75 
1.4790199458 1.4577379737 1.4790199458 1.5411035007 1.2747548784 1.25 1.2747548784 1.3462912018 1.0897247359 
1.0606601718 1.0897247359 1.17260394 0.93541434669 0.90138781887 0.93541434669 1.0307764064 1.6007810594 1.5811388301 
1.6007810594 1.3693063938 1.3462912018 1.3693063938 1.4361406616 1.1456439237 1.1180339887 1.1456439237 1.2247448714 
0.93541434669 0.90138781887 0.93541434669 1.0307764064 0.75 0.70710678119 0.75 2.25 2.3452078799 
2.4622144504 2.0916500663 2.1937410968 2.3184046239 2.4622144504 1.952562419 2.0615528128 2.1937410968 2.3452078799 
1.8371173071 1.952562419 2.0916500663 2.25 1.75 1.8708286934 2.0155644371 2.0916500663 2.1937410968 
2.3184046239 2.4622144504 1.920286437 2.0310096012 2.1650635095 2.3184046239 1.767766953 1.8874586088 2.0310096012 
2.1937410968 1.6393596311 1.767766953 1.920286437 2.0916500663 1.5411035007 1.6770509831 1.8371173071 2.0155644371 
1.952562419 2.0615528128 2.1937410968 2.3452078799 1.767766953 1.8874586088 2.0310096012 2.1937410968 1.6007810594 
1.7320508076 1.8874586088 2.0615528128 1.4577379737 1.6007810594 1.767766953 1.952562419 1.3462912018 1.5 
1.6770509831 1.8708286934 1.8371173071 1.952562419 2.0916500663 2.25 1.6393596311 1.767766953 1.920286437 
2.0916500663 1.4577379737 1.6007810594 1.767766953 1.952562419 1.2990381057 1.4577379737 1.6393596311 1.8371173071 
1.17260394 1.3462912018 1.5411035007 1.75 1.75 1.8708286934 2.0155644371 1.5411035007 1.6770509831 
1.8371173071 2.0155644371 1.3462912018 1.5 1.6770509831 1.8708286934 1.17260394 1.3462912018 1.5411035007 
1.75 1.0307764064 1.2247448714 1.4361406616 2.1360009363 1.9685019685 1.8200274723 1.6955824958 1.6007810594 
2.1213203436 1.952562419 1.8027756377 1.6770509831 1.5811388301 2.1360009363 1.9685019685 1.8200274723 1.6955824958 
1.6007810594 2.0155644371 1.8708286934 1.75 1.9685019685 1.7853571071 1.6201851746 1.4790199458 1.3693063938 
1.952562419 1.767766953 1.6007810594 1.4577379737 1.3462912018 1.9685019685 1.7853571071 1.6201851746 1.4790199458 
1.3693063938 2.0155644371 1.8371173071 1.6770509831 1.5411035007 1.4361406616 1.8200274723 1.6201851746 1.4361406616 
1.2747548784 1.1456439237 1.8027756377 1.6007810594 1.4142135624 1.25 1.1180339887 1.8200274723 1.6201851746 
1.4361406616 1.2747548784 1.1456439237 1.8708286934 1.6770509831 1.5 1.3462912018 1.2247448714 1.6955824958 
1.4790199458 1.2747548784 1.0897247359 0.93541434669 1.6770509831 1.4577379737 1.25 1.0606601718 0.90138781887 
1.6955824958 1.4790199458 1.2747548784 1.0897247359 0.93541434669 1.75 1.5411035007 1.3462912018 1.17260394 
1.0307764064 1.6007810594 1.3693063938 1.1456439237 0.93541434669 0.75 1.5811388301 1.3462912018 1.1180339887 
0.90138781887 0.70710678119 1.6007810594 1.3693063938 1.1456439237 0.93541434669 0.75 1.4361406616 1.2247448714 
1.0307764064 1.5411035007 1.5206906326 1.5411035007 1.6007810594 1.5206906326 1.5 1.5206906326 1.5811388301 
1.5411035007 1.5206906326 1.5411035007 1.6007810594 1.6007810594 1.5811388301 1.6007810594 1.2990381057 1.2747548784 
1.2990381057 1.3693063938 1.2747548784 1.25 1.2747548784 1.3462912018 1.2990381057 1.2747548784 1.2990381057 
1.3693063938 1.3693063938 1.3462912018 1.3693063938 1.4361406616 1.0606601718 1.0307764064 1.0606601718 1.1456439237 
1.0307764064 1 1.0307764064 1.1180339887 1.0606601718 1.0307764064 1.0606601718 1.1456439237 1.1456439237 
1.1180339887 1.1456439237 1.2247448714 0.82915619759 0.79056941504 0.82915619759 0.93541434669 0.79056941504 0.75 
0.79056941504 0.90138781887 0.82915619759 0.79056941504 0.82915619759 0.93541434669 0.93541434669 0.90138781887 0.93541434669 
1.0307764064 0.6123724357 0.55901699437 0.6123724357 0.75 0.55901699437 0.5 0.55901699437 0.70710678119 
0.6123724357 0.55901699437 0.6123724357 0.75 0.75 0.70710678119 0.75 1.6955824958 1.8200274723 
1.9685019685 2.1360009363 1.6770509831 1.8027756377 1.952562419 2.1213203436 1.6955824958 1.8200274723 1.9685019685 
2.1360009363 1.75 1.8708286934 2.0155644371 1.4790199458 1.6201851746 1.7853571071 1.9685019685 1.4577379737 
1.6007810594 1.767766953 1.952562419 1.4790199458 1.6201851746 1.7853571071 1.9685019685 1.5411035007 1.6770509831 
1.8371173071 2.0155644371 1.2747548784 1.4361406616 1.6201851746 1.8200274723 1.25 1.4142135624 1.6007810594 
1.8027756377 1.2747548784 1.4361406616 1.6201851746 1.8200274723 1.3462912018 1.5 1.6770509831 1.8708286934 
1.0897247359 1.2747548784 1.4790199458 1.6955824958 1.0606601718 1.25 1.4577379737 1.6770509831 1.0897247359 
1.2747548784 1.4790199458 1.6955824958 1.17260394 1.3462912018 1.5411035007 1.75 0.93541434669 1.1456439237 
1.3693063938 1.6007810594 0.90138781887 1.1180339887 1.3462912018 1.5811388301 0.93541434669 1.1456439237 1.3693063938 
1.6007810594 1.0307764064 1.2247448714 1.4361406616 2.25 2.0916500663 1.952562419 1.8371173071 1.75 
2.3452078799 2.1937410968 2.0615528128 1.952562419 1.8708286934 2.4622144504 2.3184046239 2.1937410968 2.0916500663 
2.0155644371 2.4622144504 2.3452078799 2.25 2.0916500663 1.920286437 1.767766953 1.6393596311 1.5411035007 
2.1937410968 2.0310096012 1.8874586088 1.767766953 1.6770509831 2.3184046239 2.1650635095 2.0310096012 1.920286437 
1.8371173071 2.4622144504 2.3184046239 2.1937410968 2.0916500663 2.0155644371 1.952562419 1.767766953 1.6007810594 
1.4577379737 1.3462912018 2.0615528128 1.8874586088 1.7320508076 1.6007810594 1.5 2.1937410968 2.0310096012 
1.8874586088 1.767766953 1.6770509831 2.3452078799 2.1937410968 2.0615528128 1.952562419 1.8708286934 1.8371173071 
1.6393596311 1.4577379737 1.2990381057 1.17260394 1.952562419 1.767766953 1.6007810594 1.4577379737 1.3462912018 
2.0916500663 1.920286437 1.767766953 1.6393596311 1.5411035007 2.25 2.0916500663 1.952562419 1.8371173071 
1.75 1.75 1.5411035007 1.3462912018 1.17260394 1.0307764064 1.8708286934 1.6770509831 1.5 
1.3462912018 1.2247448714 2.0155644371 1.8371173071 1.6770509831 1.5411035007 1.4361406616 2.0155644371 1.8708286934 
1.75 1.6955824958 1.6770509831 1.6955824958 1.75 1.8200274723 1.8027756377 1.8200274723 1.8708286934 
1.9685019685 1.952562419 1.9685019685 2.0155644371 2.1360009363 2.1213203436 2.1360009363 1.4790199458 1.4577379737 
1.4790199458 1.5411035007 1.6201851746 1.6007810594 1.6201851746 1.6770509831 1.7853571071 1.767766953 1.7853571071 
1.8371173071 1.9685019685 1.952562419 1.9685019685 2.0155644371 1.2747548784 1.25 1.2747548784 1.3462912018 
1.4361406616 1.4142135624 1.4361406616 1.5 1.6201851746 1.6007810594 1.6201851746 1.6770509831 1.8200274723 
1.8027756377 1.8200274723 1.8708286934 1.0897247359 1.0606601718 1.0897247359 1.17260394 1.2747548784 1.25 
1.2747548784 1.3462912018 1.4790199458 1.4577379737 1.4790199458 1.5411035007 1.6955824958 1.6770509831 1.6955824958 
1.75 0.93541434669 0.90138781887 0.93541434669 1.0307764064 1.1456439237 1.1180339887 1.1456439237 1.2247448714 
1.3693063938 1.3462912018 1.3693063938 1.4361406616 1.6007810594 1.5811388301 1.6007810594 1.8371173071 1.952562419 
2.0916500663 2.25 1.952562419 2.0615528128 2.1937410968 2.3452078799 2.0916500663 2.1937410968 2.3184046239 
2.4622144504 2.25 2.3452078799 2.4622144504 1.6393596311 1.767766953 1.920286437 2.0916500663 1.767766953 
1.8874586088 2.0310096012 2.1937410968 1.920286437 2.0310096012 2.1650635095 2.3184046239 2.0916500663 2.1937410968 
2.3184046239 2.4622144504 1.4577379737 1.6007810594 1.767766953 1.952562419 1.6007810594 1.7320508076 1.8874586088 
2.0615528128 1.767766953 1.8874586088 2.0310096012 2.1937410968 1.952562419 2.0615528128 2.1937410968 2.3452078799 
1.2990381057 1.4577379737 1.6393596311 1.8371173071 1.4577379737 1.6007810594 1.767766953 1.952562419 1.6393596311 
1.767766953 1.920286437 2.0916500663 1.8371173071 1.952562419 2.0916500663 2.25 1.17260394 1.3462912018 
1.5411035007 1.75 1.3462912018 1.5 1.6770509831 1.8708286934 1.5411035007 1.6770509831 1.8371173071 
2.0155644371 1.75 1.8708286934 2.0155644371 2.1360009363 1.9685019685 1.8200274723 1.6955824958 1.6007810594 
1.9685019685 1.7853571071 1.6201851746 1.4790199458 1.3693063938 1.8200274723 1.6201851746 1.4361406616 1.2747548784 
1.1456439237 1.6955824958 1.4790199458 1.2747548784 1.0897247359 0.93541434669 1.6007810594 1.3693063938 1.1456439237 
0.93541434669 0.75 2.1213203436 1.952562419 1.8027756377 1.6770509831 1.5811388301 1.952562419 1.767766953 
1.6007810594 1.4577379737 1.3462912018 1.8027756377 1.6007810594 1.4142135624 1.25 1.1180339887 1.6770509831 
1.4577379737 1.25 1.0606601718 0.90138781887 1.5811388301 1.3462912018 1.1180339887 0.90138781887 0.70710678119 
2.1360009363 1.9685019685 1.8200274723 1.6955824958 1.6007810594 1.9685019685 1.7853571071 1.6201851746 1.4790199458 
1.3693063938 1.8200274723 1.6201851746 1.4361406616 1.2747548784 1.1456439237 1.6955824958 1.4790199458 1.2747548784 
1.0897247359 0.93541434669 1.6007810594 1.3693063938 1.1456439237 0.93541434669 0.75 2.0155644371 1.8708286934 
1.75 2.0155644371 1.8371173071 1.6770509831 1.5411035007 1.4361406616 1.8708286934 1.6770509831 1.5 
1.3462912018 1.2247448714 1.75 1.5411035007 1.3462912018 1.17260394 1.0307764064 1.4361406616 1.2247448714 
1.0307764064 1.5411035007 1.5206906326 1.5411035007 1.6007810594 1.2990381057 1.2747548784 1.2990381057 1.3693063938 
1.0606601718 1.0307764064 1.0606601718 1.1456439237 0.82915619759 0.79056941504 0.82915619759 0.93541434669 0.6123724357 
0.55901699437 0.6123724357 0.75 1.5206906326 1.5 1.5206906326 1.5811388301 1.2747548784 1.25 
1.2747548784 1.3462912018 1.0307764064 1 1.0307764064 1.1180339887 0.79056941504 0.75 0.79056941504 
0.90138781887 0.55901699437 0.5 0.55901699437 0.70710678119 1.5411035007 1.5206906326 1.5411035007 1.6007810594 
1.2990381057 1.2747548784 1.2990381057 1.3693063938 1.0606601718 1.0307764064 1.0606601718 1.1456439237 0.82915619759 
0.79056941504 0.82915619759 0.93541434669 0.6123724357 0.55901699437 0.6123724357 0.75 1.6007810594 1.5811388301 
1.6007810594 1.3693063938 1.3462912018 1.3693063938 1.4361406616 1.1456439237 1.1180339887 1.1456439237 1.2247448714 
0.93541434669 0.90138781887 0.93541434669 1.0307764064 0.75 0.70710678119 0.75 1.6955824958 1.8200274723 
1.9685019685 2.1360009363 1.4790199458 1.6201851746 1.7853571071 1.9685019685 1.2747548784 1.4361406616 1.6201851746 
1.8200274723 1.0897247359 1.2747548784 1.4790199458 1.6955824958 0.93541434669 1.1456439237 1.3693063938 1.6007810594 
1.6770509831 1.8027756377 1.952562419 2.1213203436 1.4577379737 1.6007810594 1.767766953 1.952562419 1.25 
1.4142135624 1.6007810594 1.8027756377 1.0606601718 1.25 1.4577379737 1.6770509831 0.90138781887 1.1180339887 
1.3462912018 1.5811388301 1.6955824958 1.8200274723 1.9685019685 2.1360009363 1.4790199458 1.6201851746 1.7853571071 
1.9685019685 1.2747548784 1.4361406616 1.6201851746 1.8200274723 1.0897247359 1.2747548784 1.4790199458 1.6955824958 
0.93541434669 1.1456439237 1.3693063938 1.6007810594 1.75 1.8708286934 2.0155644371 1.5411035007 1.6770509831 
1.8371173071 2.0155644371 1.3462912018 1.5 1.6770509831 1.8708286934 1.17260394 1.3462912018 1.5411035007 
1.75 1.0307764064 1.2247448714 1.4361406616 1.5411035007 1.2990381057 1.0606601718 0.82915619759 0.6123724357 
1.5206906326 1.2747548784 1.0307764064 0.79056941504 0.55901699437 1.5411035007 1.2990381057 1.0606601718 0.82915619759 
0.6123724357 1.6007810594 1.3693063938 1.1456439237 0.93541434669 0.75 1.5206906326 1.2747548784 1.0307764064 
0.79056941504 0.55901699437 1.5 1.25 1 0.75 0.5 1.5206906326 1.2747548784 
1.0307764064 0.79056941504 0.55901699437 1.5811388301 1.3462912018 1.1180339887 0.90138781887 0.70710678119 1.5411035007 
1.2990381057 1.0606601718 0.82915619759 0.6123724357 1.5206906326 1.2747548784 1.0307764064 0.79056941504 0.55901699437 
1.5411035007 1.2990381057 1.0606601718 0.82915619759 0.6123724357 1.6007810594 1.3693063938 1.1456439237 0.93541434669 
0.75 1.6007810594 1.3693063938 1.1456439237 0.93541434669 0.75 1.5811388301 1.3462912018 1.1180339887 
0.90138781887 0.70710678119 1.6007810594 1.3693063938 1.1456439237 0.93541434669 0.75 1.4361406616 1.2247448714 
1.0307764064 0.43301270189 0.35355339059 0.43301270189 0.6123724357 0.35355339059 0.25 0.35355339059 0.55901699437 
0.43301270189 0.35355339059 0.43301270189 0.6123724357 0.6123724357 0.55901699437 0.6123724357 0.75 0.35355339059 
0.25 0.35355339059 0.55901699437 0.25 0 0.25 0.5 0.35355339059 0.25 
0.35355339059 0.55901699437 0.55901699437 0.5 0.55901699437 0.70710678119 0.43301270189 0.35355339059 0.43301270189 
0.6123724357 0.35355339059 0.25 0.35355339059 0.55901699437 0.43301270189 0.35355339059 0.43301270189 0.6123724357 
0.6123724357 0.55901699437 0.6123724357 0.75 0.6123724357 0.55901699437 0.6123724357 0.75 0.55901699437 
0.5 0.55901699437 0.70710678119 0.6123724357 0.55901699437 0.6123724357 0.75 0.75 0.70710678119 
0.75 0.82915619759 1.0606601718 1.2990381057 1.5411035007 0.79056941504 1.0307764064 1.2747548784 1.5206906326 
0.82915619759 1.0606601718 1.2990381057 1.5411035007 0.93541434669 1.1456439237 1.3693063938 1.6007810594 0.79056941504 
1.0307764064 1.2747548784 1.5206906326 0.75 1 1.25 1.5 0.79056941504 1.0307764064 
1.2747548784 1.5206906326 0.90138781887 1.1180339887 1.3462912018 1.5811388301 0.82915619759 1.0606601718 1.2990381057 
1.5411035007 0.79056941504 1.0307764064 1.2747548784 1.5206906326 0.82915619759 1.0606601718 1.2990381057 1.5411035007 
0.93541434669 1.1456439237 1.3693063938 1.6007810594 0.93541434669 1.1456439237 1.3693063938 1.6007810594 0.90138781887 
1.1180339887 1.3462912018 1.5811388301 0.93541434669 1.1456439237 1.3693063938 1.6007810594 1.0307764064 1.2247448714 
1.4361406616 1.6955824958 1.4790199458 1.2747548784 1.0897247359 0.93541434669 1.8200274723 1.6201851746 1.4361406616 
1.2747548784 1.1456439237 1.9685019685 1.7853571071 1.6201851746 1.4790199458 1.3693063938 2.1360009363 1.9685019685 
1.8200274723 1.6955824958 1.6007810594 1.6770509831 1.4577379737 1.25 1.0606601718 0.90138781887 1.8027756377 
1.6007810594 1.4142135624 1.25 1.1180339887 1.952562419 1.767766953 1.6007810594 1.4577379737 1.3462912018 
2.1213203436 1.952562419 1.8027756377 1.6770509831 1.5811388301 1.6955824958 1.4790199458 1.2747548784 1.0897247359 
0.93541434669 1.8200274723 1.6201851746 1.4361406616 1.2747548784 1.1456439237 1.9685019685 1.7853571071 1.6201851746 
1.4790199458 1.3693063938 2.1360009363 1.9685019685 1.8200274723 1.6955824958 1.6007810594 1.75 1.5411035007 
1.3462912018 1.17260394 1.0307764064 1.8708286934 1.6770509831 1.5 1.3462912018 1.2247448714 2.0155644371 
1.8371173071 1.6770509831 1.5411035007 1.4361406616 2.0155644371 1.8708286934 1.75 0.82915619759 0.79056941504 
0.82915619759 0.93541434669 1.0606601718 1.0307764064 1.0606601718 1.1456439237 1.2990381057 1.2747548784 1.2990381057 
1.3693063938 1.5411035007 1.5206906326 1.5411035007 1.6007810594 0.79056941504 0.75 0.79056941504 0.90138781887 
1.0307764064 1 1.0307764064 1.1180339887 1.2747548784 1.25 1.2747548784 1.3462912018 1.5206906326 
1.5 1.5206906326 1.5811388301 0.82915619759 0.79056941504 0.82915619759 0.93541434669 1.0606601718 1.0307764064 
1.0606601718 1.1456439237 1.2990381057 1.2747548784 1.2990381057 1.3693063938 1.5411035007 1.5206906326 1.5411035007 
1.6007810594 0.93541434669 0.90138781887 0.93541434669 1.0307764064 1.1456439237 1.1180339887 1.1456439237 1.2247448714 
1.3693063938 1.3462912018 1.3693063938 1.4361406616 1.6007810594 1.5811388301 1.6007810594 1.0897247359 1.2747548784 
1.4790199458 1.6955824958 1.2747548784 1.4361406616 1.6201851746 1.8200274723 1.4790199458 1.6201851746 1.7853571071 
1.9685019685 1.6955824958 1.8200274723 1.9685019685 2.1360009363 1.0606601718 1.25 1.4577379737 1.6770509831 
1.25 1.4142135624 1.6007810594 1.8027756377 1.4577379737 1.6007810594 1.767766953 1.952562419 1.6770509831 
1.8027756377 1.952562419 2.1213203436 1.0897247359 1.2747548784 1.4790199458 1.6955824958 1.2747548784 1.4361406616 
1.6201851746 1.8200274723 1.4790199458 1.6201851746 1.7853571071 1.9685019685 1.6955824958 1.8200274723 1.9685019685 
2.1360009363 1.17260394 1.3462912018 1.5411035007 1.75 1.3462912018 1.5 1.6770509831 1.8708286934 
1.5411035007 1.6770509831 1.8371173071 2.0155644371 1.75 1.8708286934 2.0155644371 2.25 2.0916500663 
1.952562419 1.8371173071 1.75 2.0916500663 1.920286437 1.767766953 1.6393596311 1.5411035007 1.952562419 
1.767766953 1.6007810594 1.4577379737 1.3462912018 1.8371173071 1.6393596311 1.4577379737 1.2990381057 1.17260394 
1.75 1.5411035007 1.3462912018 1.17260394 1.0307764064 2.3452078799 2.1937410968 2.0615528128 1.952562419 
1.8708286934 2.1937410968 2.0310096012 1.8874586088 1.767766953 1.6770509831 2.0615528128 1.8874586088 1.7320508076 
1.6007810594 1.5 1.952562419 1.767766953 1.6007810594 1.4577379737 1.3462912018 1.8708286934 1.6770509831 
1.5 1.3462912018 1.2247448714 2.4622144504 2.3184046239 2.1937410968 2.0916500663 2.0155644371 2.3184046239 
2.1650635095 2.0310096012 1.920286437 1.8371173071 2.1937410968 2.0310096012 1.8874586088 1.767766953 1.6770509831 