# vtk DataFile Version 4.2
vtk output
ASCII
DATASET UNSTRUCTURED_GRID
POINTS 205 double
0 0 0 1 0 0 2 0 0 
3 0 0 0 1 0 1 1 0 
2 1 0 3 1 0 0 2 0 
1 2 0 2 2 0 3 2 0 
0 3 0 1 3 0 2 3 0 
3 3 0 0.25 0 0 0.5 0 0 
0.75 0 0 0 0.25 0 0.25 0.25 0 
0.5 0.25 0 0.75 0.25 0 1 0.25 0 
0 0.5 0 0.25 0.5 0 0.5 0.5 0 
0.75 0.5 0 1 0.5 0 0 0.75 0 
0.25 0.75 0 0.5 0.75 0 0.75 0.75 0 
1 0.75 0 0.25 1 0 0.5 1 0 
0.75 1 0 1.25 0 0 1.5 0 0 
1.75 0 0 1 0.25 0 1.25 0.25 0 
1.5 0.25 0 1.75 0.25 0 2 0.25 0 
1 0.5 0 1.25 0.5 0 1.5 0.5 0 
1.75 0.5 0 2 0.5 0 1 0.75 0 
1.25 0.75 0 1.5 0.75 0 1.75 0.75 0 
2 0.75 0 1.25 1 0 1.5 1 0 
1.75 1 0 2.25 0 0 2.5 0 0 
2.75 0 0 2 0.25 0 2.25 0.25 0 
2.5 0.25 0 2.75 0.25 0 3 0.25 0 
2 0.5 0 2.25 0.5 0 2.5 0.5 0 
2.75 0.5 0 3 0.5 0 2 0.75 0 
2.25 0.75 0 2.5 0.75 0 2.75 0.75 0 
3 0.75 0 2.25 1 0 2.5 1 0 
2.75 1 0 0.25 1 0 0.5 1 0 
0.75 1 0 0 1.25 0 0.25 1.25 0 
0.5 1.25 0 0.75 1.25 0 1 1.25 0 
0 1.5 0 0.25 1.5 0 0.5 1.5 0 
0.75 1.5 0 1 1.5 0 0 1.75 0 
0.25 1.75 0 0.5 1.75 0 0.75 1.75 0 
1 1.75 0 0.25 2 0 0.5 2 0 
0.75 2 0 1.25 1 0 1.5 1 0 
1.75 1 0 1 1.25 0 1.25 1.25 0 
1.5 1.25 0 1.75 1.25 0 2 1.25 0 
1 1.5 0 1.25 1.5 0 1.5 1.5 0 
1.75 1.5 0 2 1.5 0 1 1.75 0 
1.25 1.75 0 1.5 1.75 0 1.75 1.75 0 
2 1.75 0 1.25 2 0 1.5 2 0 
1.75 2 0 2.25 1 0 2.5 1 0 
2.75 1 0 2 1.25 0 2.25 1.25 0 
2.5 1.25 0 2.75 1.25 0 3 1.25 0 
2 1.5 0 2.25 1.5 0 2.5 1.5 0 
2.75 1.5 0 3 1.5 0 2 1.75 0 
2.25 1.75 0 2.5 1.75 0 2.75 1.75 0 
3 1.75 0 2.25 2 0 2.5 2 0 
2.75 2 0 0.25 2 0 0.5 2 0 
0.75 2 0 0 2.25 0 0.25 2.25 0 
0.5 2.25 0 0.75 2.25 0 1 2.25 0 
0 2.5 0 0.25 2.5 0 0.5 2.5 0 
0.75 2.5 0 1 2.5 0 0 2.75 0 
0.25 2.75 0 0.5 2.75 0 0.75 2.75 0 
1 2.75 0 0.25 3 0 0.5 3 0 
0.75 3 0 1.25 2 0 1.5 2 0 
1.75 2 0 1 2.25 0 1.25 2.25 0 
1.5 2.25 0 1.75 2.25 0 2 2.25 0 
1 2.5 0 1.25 2.5 0 1.5 2.5 0 
1.75 2.5 0 2 2.5 0 1 2.75 0 
1.25 2.75 0 1.5 2.75 0 1.75 2.75 0 
2 2.75 0 1.25 3 0 1.5 3 0 
1.75 3 0 2.25 2 0 2.5 2 0 
2.75 2 0 2 2.25 0 2.25 2.25 0 
2.5 2.25 0 2.75 2.25 0 3 2.25 0 
2 2.5 0 2.25 2.5 0 2.5 2.5 0 
2.75 2.5 0 3 2.5 0 2 2.75 0 
2.25 2.75 0 2.5 2.75 0 2.75 2.75 0 
3 2.75 0 2.25 3 0 2.5 3 0 
2.75 3 0 
METADATA
INFORMATION 2
NAME L2_NORM_RANGE LOCATION vtkDataArray
DATA 2 0 4.24264 
NAME L2_NORM_FINITE_RANGE LOCATION vtkDataArray
DATA 2 0 4.24264 

CELLS 9 234
25 0 1 5 4 16 17 18 23 28 33 34 35 36 19 24 29 20 21 22 25 26 27 30 31 32 
25 1 2 6 5 37 38 39 44 49 54 55 56 57 40 45 50 41 42 43 46 47 48 51 52 53 
25 2 3 7 6 58 59 60 65 70 75 76 77 78 61 66 71 62 63 64 67 68 69 72 73 74 
25 4 5 9 8 79 80 81 86 91 96 97 98 99 82 87 92 83 84 85 88 89 90 93 94 95 
25 5 6 10 9 100 101 102 107 112 117 118 119 120 103 108 113 104 105 106 109 110 111 114 115 116 
25 6 7 11 10 121 122 123 128 133 138 139 140 141 124 129 134 125 126 127 130 131 132 135 136 137 
25 8 9 13 12 142 143 144 149 154 159 160 161 162 145 150 155 146 147 148 151 152 153 156 157 158 
25 9 10 14 13 163 164 165 170 175 180 181 182 183 166 171 176 167 168 169 172 173 174 177 178 179 
25 10 11 15 14 184 185 186 191 196 201 202 203 204 187 192 197 188 189 190 193 194 195 198 199 200 

CELL_TYPES 9
70
70
70
70
70
70
70
70
70

POINT_DATA 205
FIELD FieldData 2
DistanceToCenter 1 205 double
2.1213203436 1.5811388301 1.5811388301 2.1213203436 1.5811388301 0.70710678119 0.70710678119 1.5811388301 1.5811388301 
0.70710678119 0.70710678119 1.5811388301 2.1213203436 1.5811388301 1.5811388301 2.1213203436 1.952562419 1.8027756377 
1.6770509831 1.952562419 1.767766953 1.6007810594 1.4577379737 1.3462912018 1.8027756377 1.6007810594 1.4142135624 
1.25 1.1180339887 1.6770509831 1.4577379737 1.25 1.0606601718 0.90138781887 1.3462912018 1.1180339887 
0.90138781887 1.5206906326 1.5 1.5206906326 1.3462912018 1.2747548784 1.25 1.2747548784 1.3462912018 
1.1180339887 1.0307764064 1 1.0307764064 1.1180339887 0.90138781887 0.79056941504 0.75 0.79056941504 
0.90138781887 0.55901699437 0.5 0.55901699437 1.6770509831 1.8027756377 1.952562419 1.3462912018 1.4577379737 
1.6007810594 1.767766953 1.952562419 1.1180339887 1.25 1.4142135624 1.6007810594 1.8027756377 0.90138781887 
1.0606601718 1.25 1.4577379737 1.6770509831 0.90138781887 1.1180339887 1.3462912018 1.3462912018 1.1180339887 
0.90138781887 1.5206906326 1.2747548784 1.0307764064 0.79056941504 0.55901699437 1.5 1.25 1 
0.75 0.5 1.5206906326 1.2747548784 1.0307764064 0.79056941504 0.55901699437 1.3462912018 1.1180339887 
0.90138781887 0.55901699437 0.5 0.55901699437 0.55901699437 0.35355339059 0.25 0.35355339059 0.55901699437 
0.5 0.25 0 0.25 0.5 0.55901699437 0.35355339059 0.25 0.35355339059 
0.55901699437 0.55901699437 0.5 0.55901699437 0.90138781887 1.1180339887 1.3462912018 0.55901699437 0.79056941504 
1.0307764064 1.2747548784 1.5206906326 0.5 0.75 1 1.25 1.5 0.55901699437 
0.79056941504 1.0307764064 1.2747548784 1.5206906326 0.90138781887 1.1180339887 1.3462912018 1.3462912018 1.1180339887 
0.90138781887 1.6770509831 1.4577379737 1.25 1.0606601718 0.90138781887 1.8027756377 1.6007810594 1.4142135624 
1.25 1.1180339887 1.952562419 1.767766953 1.6007810594 1.4577379737 1.3462912018 1.952562419 1.8027756377 
1.6770509831 0.55901699437 0.5 0.55901699437 0.90138781887 0.79056941504 0.75 0.79056941504 0.90138781887 
1.1180339887 1.0307764064 1 1.0307764064 1.1180339887 1.3462912018 1.2747548784 1.25 1.2747548784 
1.3462912018 1.5206906326 1.5 1.5206906326 0.90138781887 1.1180339887 1.3462912018 0.90138781887 1.0606601718 
1.25 1.4577379737 1.6770509831 1.1180339887 1.25 1.4142135624 1.6007810594 1.8027756377 1.3462912018 
1.4577379737 1.6007810594 1.767766953 1.952562419 1.6770509831 1.8027756377 1.952562419 
METADATA
INFORMATION 0

Polynomial 1 205 double
1 2 3 4 2 3 4 5 3 
4 5 6 4 5 6 7 1 1 
1 1 1 1 1 2 1 1 1 
1 2 1 1 1 1 2 2 2 
2 2 2 2 2 2 2 2 3 
2 2 2 2 3 2 2 2 2 
3 3 3 3 3 3 3 3 3 
3 3 4 3 3 3 3 4 3 
3 3 3 4 4 4 4 2 2 
2 2 2 2 2 3 2 2 2 
2 3 2 2 2 2 3 3 3 
3 3 3 3 3 3 3 3 4 
3 3 3 3 4 3 3 3 3 
4 4 4 4 4 4 4 4 4 
4 4 5 4 4 4 4 5 4 
4 4 4 5 5 5 5 3 3 
3 3 3 3 3 4 3 3 3 
3 4 3 3 3 3 4 4 4 
4 4 4 4 4 4 4 4 5 
4 4 4 4 5 4 4 4 4 
5 5 5 5 5 5 5 5 5 
5 5 6 5 5 5 5 6 5 
5 5 5 6 6 6 6 
METADATA
INFORMATION 0

