# vtk DataFile Version 4.2
vtk output
ASCII
DATASET UNSTRUCTURED_GRID
POINTS 311 float
0 0 0 1 0 0 0 1 0 
1 1 0 0 0 1 1 0 1 
0 1 1 1 1 1 0.166667 0 0 
0.333333 0 0 0.5 0 0 0.666667 0 0 
0.833333 0 0 0 0.166667 0 0.166667 0.166667 0 
0.333333 0.166667 0 0.5 0.166667 0 0.666667 0.166667 0 
0.833333 0.166667 0 0 0.333333 0 0.166667 0.333333 0 
0.333333 0.333333 0 0.5 0.333333 0 0.666667 0.333333 0 
0 0.5 0 0.166667 0.5 0 0.333333 0.5 0 
0.5 0.5 0 0 0.666667 0 0.166667 0.666667 0 
0.333333 0.666667 0 0 0.833333 0 0.166667 0.833333 0 
0 0 0.166667 0.166667 0 0.166667 0.333333 0 0.166667 
0.5 0 0.166667 0.666667 0 0.166667 0.833333 0 0.166667 
0 0.166667 0.166667 0.166667 0.166667 0.166667 0.333333 0.166667 0.166667 
0.5 0.166667 0.166667 0.666667 0.166667 0.166667 0 0.333333 0.166667 
0.166667 0.333333 0.166667 0.333333 0.333333 0.166667 0.5 0.333333 0.166667 
0 0.5 0.166667 0.166667 0.5 0.166667 0.333333 0.5 0.166667 
0 0.666667 0.166667 0.166667 0.666667 0.166667 0 0.833333 0.166667 
0 0 0.333333 0.166667 0 0.333333 0.333333 0 0.333333 
0.5 0 0.333333 0.666667 0 0.333333 0 0.166667 0.333333 
0.166667 0.166667 0.333333 0.333333 0.166667 0.333333 0.5 0.166667 0.333333 
0 0.333333 0.333333 0.166667 0.333333 0.333333 0.333333 0.333333 0.333333 
0 0.5 0.333333 0.166667 0.5 0.333333 0 0.666667 0.333333 
0 0 0.5 0.166667 0 0.5 0.333333 0 0.5 
0.5 0 0.5 0 0.166667 0.5 0.166667 0.166667 0.5 
0.333333 0.166667 0.5 0 0.333333 0.5 0.166667 0.333333 0.5 
0 0.5 0.5 0 0 0.666667 0.166667 0 0.666667 
0.333333 0 0.666667 0 0.166667 0.666667 0.166667 0.166667 0.666667 
0 0.333333 0.666667 0 0 0.833333 0.166667 0 0.833333 
0 0.166667 0.833333 1 0.166667 0 1 0.333333 0 
1 0.5 0 1 0.666667 0 1 0.833333 0 
0.833333 0.333333 0 0.833333 0.5 0 0.833333 0.666667 0 
0.833333 0.833333 0 0.833333 1 0 0.666667 0.5 0 
0.666667 0.666667 0 0.666667 0.833333 0 0.666667 1 0 
0.5 0.666667 0 0.5 0.833333 0 0.5 1 0 
0.333333 0.833333 0 0.333333 1 0 0.166667 1 0 
1 0.166667 0.166667 1 0.333333 0.166667 1 0.5 0.166667 
1 0.666667 0.166667 1 0.833333 0.166667 1 1 0.166667 
0.833333 0.333333 0.166667 0.833333 0.5 0.166667 0.833333 0.666667 0.166667 
0.833333 0.833333 0.166667 0.833333 1 0.166667 0.666667 0.5 0.166667 
0.666667 0.666667 0.166667 0.666667 0.833333 0.166667 0.666667 1 0.166667 
0.5 0.666667 0.166667 0.5 0.833333 0.166667 0.5 1 0.166667 
0.333333 0.833333 0.166667 0.333333 1 0.166667 0.166667 1 0.166667 
1 0.333333 0.333333 1 0.5 0.333333 1 0.666667 0.333333 
1 0.833333 0.333333 1 1 0.333333 0.833333 0.5 0.333333 
0.833333 0.666667 0.333333 0.833333 0.833333 0.333333 0.833333 1 0.333333 
0.666667 0.666667 0.333333 0.666667 0.833333 0.333333 0.666667 1 0.333333 
0.5 0.833333 0.333333 0.5 1 0.333333 0.333333 1 0.333333 
1 0.5 0.5 1 0.666667 0.5 1 0.833333 0.5 
1 1 0.5 0.833333 0.666667 0.5 0.833333 0.833333 0.5 
0.833333 1 0.5 0.666667 0.833333 0.5 0.666667 1 0.5 
0.5 1 0.5 1 0.666667 0.666667 1 0.833333 0.666667 
1 1 0.666667 0.833333 0.833333 0.666667 0.833333 1 0.666667 
0.666667 1 0.666667 1 0.833333 0.833333 1 1 0.833333 
0.833333 1 0.833333 0 0.166667 1 0 0.333333 1 
0 0.5 1 0 0.666667 1 0 0.833333 1 
0.166667 0.166667 1 0.166667 0.333333 1 0.166667 0.5 1 
0.166667 0.666667 1 0.166667 0.833333 1 0.166667 1 1 
0.333333 0.333333 1 0.333333 0.5 1 0.333333 0.666667 1 
0.333333 0.833333 1 0.333333 1 1 0.5 0.5 1 
0.5 0.666667 1 0.5 0.833333 1 0.5 1 1 
0.666667 0.666667 1 0.666667 0.833333 1 0.666667 1 1 
0.833333 0.833333 1 0.833333 1 1 0 0.333333 0.833333 
0 0.5 0.833333 0 0.666667 0.833333 0 0.833333 0.833333 
0 1 0.833333 0.166667 0.333333 0.833333 0.166667 0.5 0.833333 
0.166667 0.666667 0.833333 0.166667 0.833333 0.833333 0.166667 1 0.833333 
0.333333 0.5 0.833333 0.333333 0.666667 0.833333 0.333333 0.833333 0.833333 
0.333333 1 0.833333 0.5 0.666667 0.833333 0.5 0.833333 0.833333 
0.5 1 0.833333 0.666667 0.833333 0.833333 0.666667 1 0.833333 
0 0.5 0.666667 0 0.666667 0.666667 0 0.833333 0.666667 
0 1 0.666667 0.166667 0.5 0.666667 0.166667 0.666667 0.666667 
0.166667 0.833333 0.666667 0.166667 1 0.666667 0.333333 0.666667 0.666667 
0.333333 0.833333 0.666667 0.333333 1 0.666667 0.5 0.833333 0.666667 
0.5 1 0.666667 0 0.666667 0.5 0 0.833333 0.5 
0 1 0.5 0.166667 0.666667 0.5 0.166667 0.833333 0.5 
0.166667 1 0.5 0.333333 0.833333 0.5 0.333333 1 0.5 
0 0.833333 0.333333 0 1 0.333333 0.166667 0.833333 0.333333 
0.166667 1 0.333333 0 1 0.166667 0.166667 0 1 
0.333333 0.166667 1 0.5 0.333333 1 0.666667 0.5 1 
0.833333 0.666667 1 1 0.833333 1 0.333333 0 1 
0.5 0.166667 1 0.666667 0.333333 1 0.833333 0.5 1 
1 0.666667 1 0.5 0 1 0.666667 0.166667 1 
0.833333 0.333333 1 1 0.5 1 0.666667 0 1 
0.833333 0.166667 1 1 0.333333 1 0.833333 0 1 
1 0.166667 1 0.333333 0.166667 0.833333 0.5 0.333333 0.833333 
0.666667 0.5 0.833333 0.833333 0.666667 0.833333 0.333333 0 0.833333 
0.5 0.166667 0.833333 0.666667 0.333333 0.833333 0.833333 0.5 0.833333 
1 0.666667 0.833333 0.5 0 0.833333 0.666667 0.166667 0.833333 
0.833333 0.333333 0.833333 1 0.5 0.833333 0.666667 0 0.833333 
0.833333 0.166667 0.833333 1 0.333333 0.833333 0.833333 0 0.833333 
1 0.166667 0.833333 1 0 0.833333 0.5 0.166667 0.666667 
0.666667 0.333333 0.666667 0.833333 0.5 0.666667 0.5 0 0.666667 
0.666667 0.166667 0.666667 0.833333 0.333333 0.666667 1 0.5 0.666667 
0.666667 0 0.666667 0.833333 0.166667 0.666667 1 0.333333 0.666667 
0.833333 0 0.666667 1 0.166667 0.666667 1 0 0.666667 
0.666667 0.166667 0.5 0.833333 0.333333 0.5 0.666667 0 0.5 
0.833333 0.166667 0.5 1 0.333333 0.5 0.833333 0 0.5 
1 0.166667 0.5 1 0 0.5 0.833333 0.166667 0.333333 
0.833333 0 0.333333 1 0.166667 0.333333 1 0 0.333333 
1 0 0.166667 -2.77556e-17 0.166667 0.833333 0.666667 0.333333 0.333333 
0.5 0.333333 0.5 0.333333 0.333333 0.666667 0.666667 0.5 0.5 
0.5 0.5 0.666667 0.666667 0.666667 0.666667 5.55112e-17 0.333333 0.666667 
0.5 0.5 0.333333 0.333333 0.5 0.5 0.5 0.666667 0.5 
0.333333 0.666667 0.333333 1.11022e-16 0.666667 0.333333 
METADATA
INFORMATION 2
NAME L2_NORM_RANGE LOCATION vtkDataArray
DATA 2 0 1.73205 
NAME L2_NORM_FINITE_RANGE LOCATION vtkDataArray
DATA 2 0 1.73205 

CELLS 5 425
84 0 1 2 4 8 9 10 11 12 18 23 27 30 32 31 28 24 19 13 33 54 69 79 85 38 58 72 81 86 53 68 78 84 87 34 37 80 35 36 57 71 70 55 56 52 83 43 67 77 75 62 47 50 65 39 82 51 59 73 76 66 48 44 63 14 29 17 20 25 26 22 16 15 21 40 42 49 74 41 46 45 60 61 64 
84 1 3 2 7 88 89 90 91 92 97 101 104 106 107 32 30 27 23 18 108 129 144 154 160 113 133 147 156 161 128 143 153 159 162 109 112 155 110 111 132 146 145 130 131 127 158 118 142 152 150 137 122 125 140 114 157 126 134 148 151 141 123 119 138 93 105 96 98 102 103 100 95 94 99 115 117 124 149 116 121 120 135 136 139 
84 4 6 7 2 163 164 165 166 167 173 178 182 185 187 186 183 179 174 168 87 84 78 68 53 192 210 222 229 232 162 159 153 143 128 188 191 228 189 190 209 221 220 207 208 206 231 197 219 227 225 214 201 204 217 193 230 205 211 223 226 218 202 198 215 169 184 172 175 180 181 177 171 170 176 194 196 203 224 195 200 199 212 213 216 
84 4 7 5 1 168 174 179 183 186 238 243 247 250 252 251 248 244 239 233 86 81 72 58 38 160 154 144 129 108 271 284 292 296 297 253 256 293 254 255 274 286 285 272 273 270 295 261 283 291 289 278 265 268 281 257 294 269 275 287 290 282 266 262 279 234 249 237 240 245 246 242 236 235 241 258 260 267 288 259 264 263 276 277 280 
84 1 4 7 2 38 58 72 81 86 168 174 179 183 186 160 154 144 129 108 18 23 27 30 32 298 305 78 310 53 162 159 153 143 128 43 83 52 62 75 77 67 50 47 65 205 230 193 218 226 223 211 198 202 215 114 126 157 119 123 141 151 148 134 138 293 256 253 286 274 255 254 272 285 273 299 301 304 309 300 303 302 306 307 308 

CELL_TYPES 5
71
71
71
71
71

POINT_DATA 311
FIELD FieldData 2
DistanceToCenter 1 311 float
0.866025 0.866025 0.866025 0.866025 0.866025 0.866025 0.866025 0.866025 0.781736 
0.726483 0.707107 0.726483 0.781736 0.781736 0.687184 0.62361 0.600925 0.62361 
0.687184 0.726483 0.62361 0.552771 0.527046 0.552771 0.707107 0.600925 0.527046 
0.5 0.726483 0.62361 0.552771 0.781736 0.687184 0.781736 0.687184 0.62361 
0.600925 0.62361 0.687184 0.687184 0.57735 0.5 0.471405 0.5 0.62361 
0.5 0.408248 0.372678 0.600925 0.471405 0.372678 0.62361 0.5 0.687184 
0.726483 0.62361 0.552771 0.527046 0.552771 0.62361 0.5 0.408248 0.372678 
0.552771 0.408248 0.288675 0.527046 0.372678 0.552771 0.707107 0.600925 0.527046 
0.5 0.600925 0.471405 0.372678 0.527046 0.372678 0.5 0.726483 0.62361 
0.552771 0.62361 0.5 0.552771 0.781736 0.687184 0.687184 0.781736 0.726483 
0.707107 0.726483 0.781736 0.62361 0.600925 0.62361 0.687184 0.781736 0.527046 
0.552771 0.62361 0.726483 0.527046 0.600925 0.707107 0.62361 0.726483 0.781736 
0.687184 0.62361 0.600925 0.62361 0.687184 0.781736 0.5 0.471404 0.5 
0.57735 0.687184 0.372678 0.408248 0.5 0.62361 0.372678 0.471404 0.600925 
0.5 0.62361 0.687184 0.552771 0.527046 0.552771 0.62361 0.726483 0.372678 
0.408248 0.5 0.62361 0.288675 0.408248 0.552771 0.372678 0.527046 0.552771 
0.5 0.527046 0.600925 0.707107 0.372678 0.471404 0.600925 0.372678 0.527046 
0.5 0.552771 0.62361 0.726483 0.5 0.62361 0.552771 0.687184 0.781736 
0.687184 0.781736 0.726483 0.707107 0.726483 0.781736 0.687184 0.62361 0.600925 
0.62361 0.687184 0.781736 0.552771 0.527046 0.552771 0.62361 0.726483 0.5 
0.527046 0.600925 0.707107 0.552771 0.62361 0.726483 0.687184 0.781736 0.62361 
0.600925 0.62361 0.687184 0.781736 0.5 0.471404 0.5 0.57735 0.687184 
0.372678 0.408248 0.5 0.62361 0.372678 0.471404 0.600925 0.5 0.62361 
0.527046 0.552771 0.62361 0.726483 0.372678 0.408248 0.5 0.62361 0.288675 
0.408248 0.552771 0.372678 0.527046 0.527046 0.600925 0.707107 0.372678 0.471404 
0.600925 0.372678 0.527046 0.62361 0.726483 0.5 0.62361 0.781736 0.781736 
0.62361 0.527046 0.527046 0.62361 0.781736 0.726483 0.600925 0.552771 0.600925 
0.726483 0.707107 0.62361 0.62361 0.707107 0.726483 0.687184 0.726483 0.781736 
0.781736 0.5 0.372678 0.372678 0.5 0.62361 0.471404 0.408248 0.471404 
0.62361 0.600925 0.5 0.5 0.600925 0.62361 0.57735 0.62361 0.687184 
0.687184 0.781736 0.372678 0.288675 0.372678 0.527046 0.408248 0.408248 0.527046 
0.552771 0.5 0.552771 0.62361 0.62361 0.726483 0.372678 0.372678 0.527046 
0.471404 0.527046 0.600925 0.600925 0.707107 0.5 0.62361 0.62361 0.726483 
0.781736 0.687184 0.288675 0.166667 0.288675 0.166667 0.166667 0.288675 0.552771 
0.166667 0.166667 0.166667 0.288675 0.552771 
METADATA
INFORMATION 0

Polynomial 1 311 float
1 2 2 3 2 3 3 4 1 
1 1 1 1 1 1 1 1 1 
1 1 1 1 1 1 1 1 1 
1 1 1 1 1 1 1 1 1 
1 1 1 1 1 1 1 1 1 
1 1 1 1 1 1 1 1 1 
1 1 1 1 1 1 1 1 1 
1 1 1 1 1 1 1 1 1 
1 1 1 1 1 1 1 1 1 
1 1 1 1 1 1 1 2 2 
2 2 2 1 1 1 1 2 1 
1 1 2 1 1 2 1 2 2 
2 2 2 2 2 3 1 1 1 
1 2 1 1 1 2 1 1 2 
1 2 2 2 2 2 2 3 1 
1 1 2 1 1 2 1 2 2 
2 2 2 3 1 1 2 1 2 
2 2 2 3 1 2 2 2 3 
2 2 2 2 2 2 2 2 2 
2 2 3 2 2 2 2 3 2 
2 2 3 2 2 3 2 3 1 
1 1 1 2 1 1 1 1 2 
1 1 1 2 1 1 2 1 2 
1 1 1 2 1 1 1 2 1 
1 2 1 2 1 1 2 1 1 
2 1 2 1 2 1 2 2 2 
2 2 2 2 3 2 2 2 2 
3 2 2 2 3 2 2 3 2 
3 1 1 1 1 1 1 1 1 
2 1 1 1 2 1 1 2 1 
2 2 1 1 1 1 1 1 2 
1 1 2 1 2 2 1 1 1 
1 2 1 2 2 1 1 2 2 
2 1 1 1 1 1 1 1 1 
1 1 1 1 1 
METADATA
INFORMATION 0

