# vtk DataFile Version 4.2
vtk output
ASCII
DATASET UNSTRUCTURED_GRID
POINTS 361 float
0 0 0 1 0 0 2 0 0 
3 0 0 0 1 0 1 1 0 
2 1 0 3 1 0 0 2 0 
1 2 0 2 2 0 3 2 0 
0 3 0 1 3 0 2 3 0 
3 3 0 0.166667 0 0 0.333333 0 0 
0.5 0 0 0.666667 0 0 0.833333 0 0 
0 0.166667 0 0.166667 0.166667 0 0.333333 0.166667 0 
0.5 0.166667 0 0.666667 0.166667 0 0.833333 0.166667 0 
1 0.166667 0 0 0.333333 0 0.166667 0.333333 0 
0.333333 0.333333 0 0.5 0.333333 0 0.666667 0.333333 0 
0.833333 0.333333 0 1 0.333333 0 0 0.5 0 
0.166667 0.5 0 0.333333 0.5 0 0.5 0.5 0 
0.666667 0.5 0 0.833333 0.5 0 1 0.5 0 
0 0.666667 0 0.166667 0.666667 0 0.333333 0.666667 0 
0.5 0.666667 0 0.666667 0.666667 0 0.833333 0.666667 0 
1 0.666667 0 0 0.833333 0 0.166667 0.833333 0 
0.333333 0.833333 0 0.5 0.833333 0 0.666667 0.833333 0 
0.833333 0.833333 0 1 0.833333 0 0.166667 1 0 
0.333333 1 0 0.5 1 0 0.666667 1 0 
0.833333 1 0 1.16667 0 0 1.33333 0 0 
1.5 0 0 1.66667 0 0 1.83333 0 0 
1.16667 0.166667 0 1.33333 0.166667 0 1.5 0.166667 0 
1.66667 0.166667 0 1.83333 0.166667 0 2 0.166667 0 
1.16667 0.333333 0 1.33333 0.333333 0 1.5 0.333333 0 
1.66667 0.333333 0 1.83333 0.333333 0 2 0.333333 0 
1.16667 0.5 0 1.33333 0.5 0 1.5 0.5 0 
1.66667 0.5 0 1.83333 0.5 0 2 0.5 0 
1.16667 0.666667 0 1.33333 0.666667 0 1.5 0.666667 0 
1.66667 0.666667 0 1.83333 0.666667 0 2 0.666667 0 
1.16667 0.833333 0 1.33333 0.833333 0 1.5 0.833333 0 
1.66667 0.833333 0 1.83333 0.833333 0 2 0.833333 0 
1.16667 1 0 1.33333 1 0 1.5 1 0 
1.66667 1 0 1.83333 1 0 2.16667 0 0 
2.33333 0 0 2.5 0 0 2.66667 0 0 
2.83333 0 0 2.16667 0.166667 0 2.33333 0.166667 0 
2.5 0.166667 0 2.66667 0.166667 0 2.83333 0.166667 0 
3 0.166667 0 2.16667 0.333333 0 2.33333 0.333333 0 
2.5 0.333333 0 2.66667 0.333333 0 2.83333 0.333333 0 
3 0.333333 0 2.16667 0.5 0 2.33333 0.5 0 
2.5 0.5 0 2.66667 0.5 0 2.83333 0.5 0 
3 0.5 0 2.16667 0.666667 0 2.33333 0.666667 0 
2.5 0.666667 0 2.66667 0.666667 0 2.83333 0.666667 0 
3 0.666667 0 2.16667 0.833333 0 2.33333 0.833333 0 
2.5 0.833333 0 2.66667 0.833333 0 2.83333 0.833333 0 
3 0.833333 0 2.16667 1 0 2.33333 1 0 
2.5 1 0 2.66667 1 0 2.83333 1 0 
0 1.16667 0 0.166667 1.16667 0 0.333333 1.16667 0 
0.5 1.16667 0 0.666667 1.16667 0 0.833333 1.16667 0 
1 1.16667 0 0 1.33333 0 0.166667 1.33333 0 
0.333333 1.33333 0 0.5 1.33333 0 0.666667 1.33333 0 
0.833333 1.33333 0 1 1.33333 0 0 1.5 0 
0.166667 1.5 0 0.333333 1.5 0 0.5 1.5 0 
0.666667 1.5 0 0.833333 1.5 0 1 1.5 0 
0 1.66667 0 0.166667 1.66667 0 0.333333 1.66667 0 
0.5 1.66667 0 0.666667 1.66667 0 0.833333 1.66667 0 
1 1.66667 0 0 1.83333 0 0.166667 1.83333 0 
0.333333 1.83333 0 0.5 1.83333 0 0.666667 1.83333 0 
0.833333 1.83333 0 1 1.83333 0 0.166667 2 0 
0.333333 2 0 0.5 2 0 0.666667 2 0 
0.833333 2 0 1.16667 1.16667 0 1.33333 1.16667 0 
1.5 1.16667 0 1.66667 1.16667 0 1.83333 1.16667 0 
2 1.16667 0 1.16667 1.33333 0 1.33333 1.33333 0 
1.5 1.33333 0 1.66667 1.33333 0 1.83333 1.33333 0 
2 1.33333 0 1.16667 1.5 0 1.33333 1.5 0 
1.5 1.5 0 1.66667 1.5 0 1.83333 1.5 0 
2 1.5 0 1.16667 1.66667 0 1.33333 1.66667 0 
1.5 1.66667 0 1.66667 1.66667 0 1.83333 1.66667 0 
2 1.66667 0 1.16667 1.83333 0 1.33333 1.83333 0 
1.5 1.83333 0 1.66667 1.83333 0 1.83333 1.83333 0 
2 1.83333 0 1.16667 2 0 1.33333 2 0 
1.5 2 0 1.66667 2 0 1.83333 2 0 
2.16667 1.16667 0 2.33333 1.16667 0 2.5 1.16667 0 
2.66667 1.16667 0 2.83333 1.16667 0 3 1.16667 0 
2.16667 1.33333 0 2.33333 1.33333 0 2.5 1.33333 0 
2.66667 1.33333 0 2.83333 1.33333 0 3 1.33333 0 
2.16667 1.5 0 2.33333 1.5 0 2.5 1.5 0 
2.66667 1.5 0 2.83333 1.5 0 3 1.5 0 
2.16667 1.66667 0 2.33333 1.66667 0 2.5 1.66667 0 
2.66667 1.66667 0 2.83333 1.66667 0 3 1.66667 0 
2.16667 1.83333 0 2.33333 1.83333 0 2.5 1.83333 0 
2.66667 1.83333 0 2.83333 1.83333 0 3 1.83333 0 
2.16667 2 0 2.33333 2 0 2.5 2 0 
2.66667 2 0 2.83333 2 0 0 2.16667 0 
0.166667 2.16667 0 0.333333 2.16667 0 0.5 2.16667 0 
0.666667 2.16667 0 0.833333 2.16667 0 1 2.16667 0 
0 2.33333 0 0.166667 2.33333 0 0.333333 2.33333 0 
0.5 2.33333 0 0.666667 2.33333 0 0.833333 2.33333 0 
1 2.33333 0 0 2.5 0 0.166667 2.5 0 
0.333333 2.5 0 0.5 2.5 0 0.666667 2.5 0 
0.833333 2.5 0 1 2.5 0 0 2.66667 0 
0.166667 2.66667 0 0.333333 2.66667 0 0.5 2.66667 0 
0.666667 2.66667 0 0.833333 2.66667 0 1 2.66667 0 
0 2.83333 0 0.166667 2.83333 0 0.333333 2.83333 0 
0.5 2.83333 0 0.666667 2.83333 0 0.833333 2.83333 0 
1 2.83333 0 0.166667 3 0 0.333333 3 0 
0.5 3 0 0.666667 3 0 0.833333 3 0 
1.16667 2.16667 0 1.33333 2.16667 0 1.5 2.16667 0 
1.66667 2.16667 0 1.83333 2.16667 0 2 2.16667 0 
1.16667 2.33333 0 1.33333 2.33333 0 1.5 2.33333 0 
1.66667 2.33333 0 1.83333 2.33333 0 2 2.33333 0 
1.16667 2.5 0 1.33333 2.5 0 1.5 2.5 0 
1.66667 2.5 0 1.83333 2.5 0 2 2.5 0 
1.16667 2.66667 0 1.33333 2.66667 0 1.5 2.66667 0 
1.66667 2.66667 0 1.83333 2.66667 0 2 2.66667 0 
1.16667 2.83333 0 1.33333 2.83333 0 1.5 2.83333 0 
1.66667 2.83333 0 1.83333 2.83333 0 2 2.83333 0 
1.16667 3 0 1.33333 3 0 1.5 3 0 
1.66667 3 0 1.83333 3 0 2.16667 2.16667 0 
2.33333 2.16667 0 2.5 2.16667 0 2.66667 2.16667 0 
2.83333 2.16667 0 3 2.16667 0 2.16667 2.33333 0 
2.33333 2.33333 0 2.5 2.33333 0 2.66667 2.33333 0 
2.83333 2.33333 0 3 2.33333 0 2.16667 2.5 0 
2.33333 2.5 0 2.5 2.5 0 2.66667 2.5 0 
2.83333 2.5 0 3 2.5 0 2.16667 2.66667 0 
2.33333 2.66667 0 2.5 2.66667 0 2.66667 2.66667 0 
2.83333 2.66667 0 3 2.66667 0 2.16667 2.83333 0 
2.33333 2.83333 0 2.5 2.83333 0 2.66667 2.83333 0 
2.83333 2.83333 0 3 2.83333 0 2.16667 3 0 
2.33333 3 0 2.5 3 0 2.66667 3 0 
2.83333 3 0 
METADATA
INFORMATION 2
NAME L2_NORM_RANGE LOCATION vtkDataArray
DATA 2 0 4.24264 
NAME L2_NORM_FINITE_RANGE LOCATION vtkDataArray
DATA 2 0 4.24264 

CELLS 18 522
28 0 1 4 16 17 18 19 20 26 32 38 44 50 49 42 35 28 21 22 25 43 23 24 31 37 36 29 30 
28 5 4 1 60 59 58 57 56 50 44 38 32 26 27 34 41 48 55 54 51 33 53 52 45 39 40 47 46 
28 1 2 5 61 62 63 64 65 70 75 80 85 90 55 48 41 34 27 66 69 84 67 68 74 79 78 72 73 
28 6 5 2 100 99 98 97 96 90 85 80 75 70 71 77 83 89 95 94 91 76 93 92 86 81 82 88 87 
28 2 3 6 101 102 103 104 105 110 115 120 125 130 95 89 83 77 71 106 109 124 107 108 114 119 118 112 113 
28 7 6 3 140 139 138 137 136 130 125 120 115 110 111 117 123 129 135 134 131 116 133 132 126 121 122 128 127 
28 4 5 8 56 57 58 59 60 146 152 158 164 170 169 162 155 148 141 142 145 163 143 144 151 157 156 149 150 
28 9 8 5 180 179 178 177 176 170 164 158 152 146 147 154 161 168 175 174 171 153 173 172 165 159 160 167 166 
28 5 6 9 96 97 98 99 100 185 190 195 200 205 175 168 161 154 147 181 184 199 182 183 189 194 193 187 188 
28 10 9 6 215 214 213 212 211 205 200 195 190 185 186 192 198 204 210 209 206 191 208 207 201 196 197 203 202 
28 6 7 10 136 137 138 139 140 220 225 230 235 240 210 204 198 192 186 216 219 234 217 218 224 229 228 222 223 
28 11 10 7 250 249 248 247 246 240 235 230 225 220 221 227 233 239 245 244 241 226 243 242 236 231 232 238 237 
28 8 9 12 176 177 178 179 180 256 262 268 274 280 279 272 265 258 251 252 255 273 253 254 261 267 266 259 260 
28 13 12 9 290 289 288 287 286 280 274 268 262 256 257 264 271 278 285 284 281 263 283 282 275 269 270 277 276 
28 9 10 13 211 212 213 214 215 295 300 305 310 315 285 278 271 264 257 291 294 309 292 293 299 304 303 297 298 
28 14 13 10 325 324 323 322 321 315 310 305 300 295 296 302 308 314 320 319 316 301 318 317 311 306 307 313 312 
28 10 11 14 246 247 248 249 250 330 335 340 345 350 320 314 308 302 296 326 329 344 327 328 334 339 338 332 333 
28 15 14 11 360 359 358 357 356 350 345 340 335 330 331 337 343 349 355 354 351 336 353 352 346 341 342 348 347 

CELL_TYPES 18
69
69
69
69
69
69
69
69
69
69
69
69
69
69
69
69
69
69

POINT_DATA 361
FIELD FieldData 2
DistanceToCenter 1 361 float
2.12132 1.58114 1.58114 2.12132 1.58114 0.707107 0.707107 1.58114 1.58114 
0.707107 0.707107 1.58114 2.12132 1.58114 1.58114 2.12132 2.00693 1.90029 
1.80278 1.71594 1.64148 2.00693 1.88562 1.77169 1.66667 1.57233 1.49071 
1.424 1.90029 1.77169 1.64992 1.53659 1.43372 1.34371 1.2693 1.80278 
1.66667 1.53659 1.41421 1.30171 1.20185 1.11803 1.71594 1.57233 1.43372 
1.30171 1.17851 1.06719 0.971825 1.64148 1.49071 1.34371 1.20185 1.06719 
0.942809 0.833333 1.424 1.2693 1.11803 0.971825 0.833333 1.53659 1.50923 
1.5 1.50923 1.53659 1.37437 1.34371 1.33333 1.34371 1.37437 1.424 
1.21335 1.17851 1.16667 1.17851 1.21335 1.2693 1.05409 1.01379 1 
1.01379 1.05409 1.11803 0.897527 0.849837 0.833333 0.849837 0.897527 0.971825 
0.745356 0.687184 0.666667 0.687184 0.745356 0.833333 0.600925 0.527046 0.5 
0.527046 0.600925 1.64148 1.71594 1.80278 1.90029 2.00693 1.49071 1.57233 
1.66667 1.77169 1.88562 2.00693 1.34371 1.43372 1.53659 1.64992 1.77169 
1.90029 1.20185 1.30171 1.41421 1.53659 1.66667 1.80278 1.06719 1.17851 
1.30171 1.43372 1.57233 1.71594 0.942809 1.06719 1.20185 1.34371 1.49071 
1.64148 0.833333 0.971825 1.11803 1.2693 1.424 1.53659 1.37437 1.21335 
1.05409 0.897527 0.745356 0.600925 1.50923 1.34371 1.17851 1.01379 0.849837 
0.687184 0.527046 1.5 1.33333 1.16667 1 0.833333 0.666667 0.5 
1.50923 1.34371 1.17851 1.01379 0.849837 0.687184 0.527046 1.53659 1.37437 
1.21335 1.05409 0.897527 0.745356 0.600925 1.424 1.2693 1.11803 0.971825 
0.833333 0.471405 0.372678 0.333333 0.372678 0.471405 0.600925 0.372678 0.235702 
0.166667 0.235702 0.372678 0.527046 0.333333 0.166667 0 0.166667 0.333333 
0.5 0.372678 0.235702 0.166667 0.235702 0.372678 0.527046 0.471405 0.372678 
0.333333 0.372678 0.471405 0.600925 0.600925 0.527046 0.5 0.527046 0.600925 
0.745356 0.897527 1.05409 1.21335 1.37437 1.53659 0.687184 0.849837 1.01379 
1.17851 1.34371 1.50923 0.666667 0.833333 1 1.16667 1.33333 1.5 
0.687184 0.849837 1.01379 1.17851 1.34371 1.50923 0.745356 0.897527 1.05409 
1.21335 1.37437 1.53659 0.833333 0.971825 1.11803 1.2693 1.424 1.64148 
1.49071 1.34371 1.20185 1.06719 0.942809 0.833333 1.71594 1.57233 1.43372 
1.30171 1.17851 1.06719 0.971825 1.80278 1.66667 1.53659 1.41421 1.30171 
1.20185 1.11803 1.90029 1.77169 1.64992 1.53659 1.43372 1.34371 1.2693 
2.00693 1.88562 1.77169 1.66667 1.57233 1.49071 1.424 2.00693 1.90029 
1.80278 1.71594 1.64148 0.745356 0.687184 0.666667 0.687184 0.745356 0.833333 
0.897527 0.849837 0.833333 0.849837 0.897527 0.971825 1.05409 1.01379 1 
1.01379 1.05409 1.11803 1.21335 1.17851 1.16667 1.17851 1.21335 1.2693 
1.37437 1.34371 1.33333 1.34371 1.37437 1.424 1.53659 1.50923 1.5 
1.50923 1.53659 0.942809 1.06719 1.20185 1.34371 1.49071 1.64148 1.06719 
1.17851 1.30171 1.43372 1.57233 1.71594 1.20185 1.30171 1.41421 1.53659 
1.66667 1.80278 1.34371 1.43372 1.53659 1.64992 1.77169 1.90029 1.49071 
1.57233 1.66667 1.77169 1.88562 2.00693 1.64148 1.71594 1.80278 1.90029 
2.00693 
METADATA
INFORMATION 0

Polynomial 1 361 float
1 2 3 4 2 3 4 5 3 
4 5 6 4 5 6 7 1 1 
1 1 1 1 1 1 1 1 1 
2 1 1 1 1 1 1 2 1 
1 1 1 1 1 2 1 1 1 
1 1 1 2 1 1 1 1 1 
1 2 2 2 2 2 2 2 2 
2 2 2 2 2 2 2 2 3 
2 2 2 2 2 3 2 2 2 
2 2 3 2 2 2 2 2 3 
2 2 2 2 2 3 3 3 3 
3 3 3 3 3 3 3 3 3 
3 3 3 4 3 3 3 3 3 
4 3 3 3 3 3 4 3 3 
3 3 3 4 3 3 3 3 3 
4 4 4 4 4 4 2 2 2 
2 2 2 3 2 2 2 2 2 
2 3 2 2 2 2 2 2 3 
2 2 2 2 2 2 3 2 2 
2 2 2 2 3 3 3 3 3 
3 3 3 3 3 3 4 3 3 
3 3 3 4 3 3 3 3 3 
4 3 3 3 3 3 4 3 3 
3 3 3 4 4 4 4 4 4 
4 4 4 4 4 5 4 4 4 
4 4 5 4 4 4 4 4 5 
4 4 4 4 4 5 4 4 4 
4 4 5 5 5 5 5 5 3 
3 3 3 3 3 4 3 3 3 
3 3 3 4 3 3 3 3 3 
3 4 3 3 3 3 3 3 4 
3 3 3 3 3 3 4 4 4 
4 4 4 4 4 4 4 4 5 
4 4 4 4 4 5 4 4 4 
4 4 5 4 4 4 4 4 5 
4 4 4 4 4 5 5 5 5 
5 5 5 5 5 5 5 6 5 
5 5 5 5 6 5 5 5 5 
5 6 5 5 5 5 5 6 5 
5 5 5 5 6 6 6 6 6 
6 
METADATA
INFORMATION 0

